V -t * -v 1.0a5 -a 0
A -t * -n 1 -p 0 -o 0x7fffffff -c 30 -a 1
A -t * -h 1 -m 1073741823 -s 0
c -t * -i 1 -n Blue
c -t * -i 2 -n Red
n -t * -a 0 -s 0 -S UP -v circle -c black -i black
n -t * -a 1 -s 1 -S UP -v circle -c black -i black
n -t * -a 2 -s 2 -S UP -v circle -c black -i black
l -t * -s 0 -d 1 -S UP -r 10000000 -D 0.01 -c black -o right-down
l -t * -s 1 -d 2 -S UP -r 2000000 -D 0.01 -c black -o right-up
+ -t 1 -s 0 -d 1 -p tcp -e 40 -c 1 -i 0 -a 1 -x {0.0 2.0 0 ------- null}
- -t 1 -s 0 -d 1 -p tcp -e 40 -c 1 -i 0 -a 1 -x {0.0 2.0 0 ------- null}
h -t 1 -s 0 -d 1 -p tcp -e 40 -c 1 -i 0 -a 1 -x {0.0 2.0 -1 ------- null}
r -t 1.010032 -s 0 -d 1 -p tcp -e 40 -c 1 -i 0 -a 1 -x {0.0 2.0 0 ------- null}
+ -t 1.010032 -s 1 -d 2 -p tcp -e 40 -c 1 -i 0 -a 1 -x {0.0 2.0 0 ------- null}
- -t 1.010032 -s 1 -d 2 -p tcp -e 40 -c 1 -i 0 -a 1 -x {0.0 2.0 0 ------- null}
h -t 1.010032 -s 1 -d 2 -p tcp -e 40 -c 1 -i 0 -a 1 -x {0.0 2.0 -1 ------- null}
r -t 1.020192 -s 1 -d 2 -p tcp -e 40 -c 1 -i 0 -a 1 -x {0.0 2.0 0 ------- null}
+ -t 1.020192 -s 2 -d 1 -p ack -e 40 -c 1 -i 1 -a 1 -x {2.0 0.0 0 ------- null}
- -t 1.020192 -s 2 -d 1 -p ack -e 40 -c 1 -i 1 -a 1 -x {2.0 0.0 0 ------- null}
h -t 1.020192 -s 2 -d 1 -p ack -e 40 -c 1 -i 1 -a 1 -x {2.0 0.0 -1 ------- null}
r -t 1.030352 -s 2 -d 1 -p ack -e 40 -c 1 -i 1 -a 1 -x {2.0 0.0 0 ------- null}
+ -t 1.030352 -s 1 -d 0 -p ack -e 40 -c 1 -i 1 -a 1 -x {2.0 0.0 0 ------- null}
- -t 1.030352 -s 1 -d 0 -p ack -e 40 -c 1 -i 1 -a 1 -x {2.0 0.0 0 ------- null}
h -t 1.030352 -s 1 -d 0 -p ack -e 40 -c 1 -i 1 -a 1 -x {2.0 0.0 -1 ------- null}
r -t 1.040384 -s 1 -d 0 -p ack -e 40 -c 1 -i 1 -a 1 -x {2.0 0.0 0 ------- null}
+ -t 1.040384 -s 0 -d 1 -p tcp -e 592 -c 1 -i 2 -a 1 -x {0.0 2.0 1 ------- null}
- -t 1.040384 -s 0 -d 1 -p tcp -e 592 -c 1 -i 2 -a 1 -x {0.0 2.0 1 ------- null}
h -t 1.040384 -s 0 -d 1 -p tcp -e 592 -c 1 -i 2 -a 1 -x {0.0 2.0 -1 ------- null}
+ -t 1.040384 -s 0 -d 1 -p tcp -e 592 -c 1 -i 3 -a 1 -x {0.0 2.0 2 ------- null}
- -t 1.0408576 -s 0 -d 1 -p tcp -e 592 -c 1 -i 3 -a 1 -x {0.0 2.0 2 ------- null}
h -t 1.0408576 -s 0 -d 1 -p tcp -e 592 -c 1 -i 3 -a 1 -x {0.0 2.0 -1 ------- null}
r -t 1.0508576 -s 0 -d 1 -p tcp -e 592 -c 1 -i 2 -a 1 -x {0.0 2.0 1 ------- null}
+ -t 1.0508576 -s 1 -d 2 -p tcp -e 592 -c 1 -i 2 -a 1 -x {0.0 2.0 1 ------- null}
- -t 1.0508576 -s 1 -d 2 -p tcp -e 592 -c 1 -i 2 -a 1 -x {0.0 2.0 1 ------- null}
h -t 1.0508576 -s 1 -d 2 -p tcp -e 592 -c 1 -i 2 -a 1 -x {0.0 2.0 -1 ------- null}
r -t 1.0513312 -s 0 -d 1 -p tcp -e 592 -c 1 -i 3 -a 1 -x {0.0 2.0 2 ------- null}
+ -t 1.0513312 -s 1 -d 2 -p tcp -e 592 -c 1 -i 3 -a 1 -x {0.0 2.0 2 ------- null}
- -t 1.0532256 -s 1 -d 2 -p tcp -e 592 -c 1 -i 3 -a 1 -x {0.0 2.0 2 ------- null}
h -t 1.0532256 -s 1 -d 2 -p tcp -e 592 -c 1 -i 3 -a 1 -x {0.0 2.0 -1 ------- null}
r -t 1.0632256 -s 1 -d 2 -p tcp -e 592 -c 1 -i 2 -a 1 -x {0.0 2.0 1 ------- null}
+ -t 1.0632256 -s 2 -d 1 -p ack -e 40 -c 1 -i 4 -a 1 -x {2.0 0.0 1 ------- null}
- -t 1.0632256 -s 2 -d 1 -p ack -e 40 -c 1 -i 4 -a 1 -x {2.0 0.0 1 ------- null}
h -t 1.0632256 -s 2 -d 1 -p ack -e 40 -c 1 -i 4 -a 1 -x {2.0 0.0 -1 ------- null}
r -t 1.0655936 -s 1 -d 2 -p tcp -e 592 -c 1 -i 3 -a 1 -x {0.0 2.0 2 ------- null}
+ -t 1.0655936 -s 2 -d 1 -p ack -e 40 -c 1 -i 5 -a 1 -x {2.0 0.0 2 ------- null}
- -t 1.0655936 -s 2 -d 1 -p ack -e 40 -c 1 -i 5 -a 1 -x {2.0 0.0 2 ------- null}
h -t 1.0655936 -s 2 -d 1 -p ack -e 40 -c 1 -i 5 -a 1 -x {2.0 0.0 -1 ------- null}
r -t 1.0733856 -s 2 -d 1 -p ack -e 40 -c 1 -i 4 -a 1 -x {2.0 0.0 1 ------- null}
+ -t 1.0733856 -s 1 -d 0 -p ack -e 40 -c 1 -i 4 -a 1 -x {2.0 0.0 1 ------- null}
- -t 1.0733856 -s 1 -d 0 -p ack -e 40 -c 1 -i 4 -a 1 -x {2.0 0.0 1 ------- null}
h -t 1.0733856 -s 1 -d 0 -p ack -e 40 -c 1 -i 4 -a 1 -x {2.0 0.0 -1 ------- null}
r -t 1.0757536 -s 2 -d 1 -p ack -e 40 -c 1 -i 5 -a 1 -x {2.0 0.0 2 ------- null}
+ -t 1.0757536 -s 1 -d 0 -p ack -e 40 -c 1 -i 5 -a 1 -x {2.0 0.0 2 ------- null}
- -t 1.0757536 -s 1 -d 0 -p ack -e 40 -c 1 -i 5 -a 1 -x {2.0 0.0 2 ------- null}
h -t 1.0757536 -s 1 -d 0 -p ack -e 40 -c 1 -i 5 -a 1 -x {2.0 0.0 -1 ------- null}
r -t 1.0834176 -s 1 -d 0 -p ack -e 40 -c 1 -i 4 -a 1 -x {2.0 0.0 1 ------- null}
+ -t 1.0834176 -s 0 -d 1 -p tcp -e 592 -c 1 -i 6 -a 1 -x {0.0 2.0 3 ------- null}
- -t 1.0834176 -s 0 -d 1 -p tcp -e 592 -c 1 -i 6 -a 1 -x {0.0 2.0 3 ------- null}
h -t 1.0834176 -s 0 -d 1 -p tcp -e 592 -c 1 -i 6 -a 1 -x {0.0 2.0 -1 ------- null}
+ -t 1.0834176 -s 0 -d 1 -p tcp -e 592 -c 1 -i 7 -a 1 -x {0.0 2.0 4 ------- null}
- -t 1.0838912 -s 0 -d 1 -p tcp -e 592 -c 1 -i 7 -a 1 -x {0.0 2.0 4 ------- null}
h -t 1.0838912 -s 0 -d 1 -p tcp -e 592 -c 1 -i 7 -a 1 -x {0.0 2.0 -1 ------- null}
r -t 1.0857856 -s 1 -d 0 -p ack -e 40 -c 1 -i 5 -a 1 -x {2.0 0.0 2 ------- null}
+ -t 1.0857856 -s 0 -d 1 -p tcp -e 592 -c 1 -i 8 -a 1 -x {0.0 2.0 5 ------- null}
- -t 1.0857856 -s 0 -d 1 -p tcp -e 592 -c 1 -i 8 -a 1 -x {0.0 2.0 5 ------- null}
h -t 1.0857856 -s 0 -d 1 -p tcp -e 592 -c 1 -i 8 -a 1 -x {0.0 2.0 -1 ------- null}
+ -t 1.0857856 -s 0 -d 1 -p tcp -e 592 -c 1 -i 9 -a 1 -x {0.0 2.0 6 ------- null}
- -t 1.0862592 -s 0 -d 1 -p tcp -e 592 -c 1 -i 9 -a 1 -x {0.0 2.0 6 ------- null}
h -t 1.0862592 -s 0 -d 1 -p tcp -e 592 -c 1 -i 9 -a 1 -x {0.0 2.0 -1 ------- null}
r -t 1.0938912 -s 0 -d 1 -p tcp -e 592 -c 1 -i 6 -a 1 -x {0.0 2.0 3 ------- null}
+ -t 1.0938912 -s 1 -d 2 -p tcp -e 592 -c 1 -i 6 -a 1 -x {0.0 2.0 3 ------- null}
- -t 1.0938912 -s 1 -d 2 -p tcp -e 592 -c 1 -i 6 -a 1 -x {0.0 2.0 3 ------- null}
h -t 1.0938912 -s 1 -d 2 -p tcp -e 592 -c 1 -i 6 -a 1 -x {0.0 2.0 -1 ------- null}
r -t 1.0943648 -s 0 -d 1 -p tcp -e 592 -c 1 -i 7 -a 1 -x {0.0 2.0 4 ------- null}
+ -t 1.0943648 -s 1 -d 2 -p tcp -e 592 -c 1 -i 7 -a 1 -x {0.0 2.0 4 ------- null}
r -t 1.0962592 -s 0 -d 1 -p tcp -e 592 -c 1 -i 8 -a 1 -x {0.0 2.0 5 ------- null}
+ -t 1.0962592 -s 1 -d 2 -p tcp -e 592 -c 1 -i 8 -a 1 -x {0.0 2.0 5 ------- null}
- -t 1.0962592 -s 1 -d 2 -p tcp -e 592 -c 1 -i 7 -a 1 -x {0.0 2.0 4 ------- null}
h -t 1.0962592 -s 1 -d 2 -p tcp -e 592 -c 1 -i 7 -a 1 -x {0.0 2.0 -1 ------- null}
r -t 1.0967328 -s 0 -d 1 -p tcp -e 592 -c 1 -i 9 -a 1 -x {0.0 2.0 6 ------- null}
+ -t 1.0967328 -s 1 -d 2 -p tcp -e 592 -c 1 -i 9 -a 1 -x {0.0 2.0 6 ------- null}
- -t 1.0986272 -s 1 -d 2 -p tcp -e 592 -c 1 -i 8 -a 1 -x {0.0 2.0 5 ------- null}
h -t 1.0986272 -s 1 -d 2 -p tcp -e 592 -c 1 -i 8 -a 1 -x {0.0 2.0 -1 ------- null}
- -t 1.1009952 -s 1 -d 2 -p tcp -e 592 -c 1 -i 9 -a 1 -x {0.0 2.0 6 ------- null}
h -t 1.1009952 -s 1 -d 2 -p tcp -e 592 -c 1 -i 9 -a 1 -x {0.0 2.0 -1 ------- null}
r -t 1.1062592 -s 1 -d 2 -p tcp -e 592 -c 1 -i 6 -a 1 -x {0.0 2.0 3 ------- null}
+ -t 1.1062592 -s 2 -d 1 -p ack -e 40 -c 1 -i 10 -a 1 -x {2.0 0.0 3 ------- null}
- -t 1.1062592 -s 2 -d 1 -p ack -e 40 -c 1 -i 10 -a 1 -x {2.0 0.0 3 ------- null}
h -t 1.1062592 -s 2 -d 1 -p ack -e 40 -c 1 -i 10 -a 1 -x {2.0 0.0 -1 ------- null}
r -t 1.1086272 -s 1 -d 2 -p tcp -e 592 -c 1 -i 7 -a 1 -x {0.0 2.0 4 ------- null}
+ -t 1.1086272 -s 2 -d 1 -p ack -e 40 -c 1 -i 11 -a 1 -x {2.0 0.0 4 ------- null}
- -t 1.1086272 -s 2 -d 1 -p ack -e 40 -c 1 -i 11 -a 1 -x {2.0 0.0 4 ------- null}
h -t 1.1086272 -s 2 -d 1 -p ack -e 40 -c 1 -i 11 -a 1 -x {2.0 0.0 -1 ------- null}
r -t 1.1109952 -s 1 -d 2 -p tcp -e 592 -c 1 -i 8 -a 1 -x {0.0 2.0 5 ------- null}
+ -t 1.1109952 -s 2 -d 1 -p ack -e 40 -c 1 -i 12 -a 1 -x {2.0 0.0 5 ------- null}
- -t 1.1109952 -s 2 -d 1 -p ack -e 40 -c 1 -i 12 -a 1 -x {2.0 0.0 5 ------- null}
h -t 1.1109952 -s 2 -d 1 -p ack -e 40 -c 1 -i 12 -a 1 -x {2.0 0.0 -1 ------- null}
r -t 1.1133632 -s 1 -d 2 -p tcp -e 592 -c 1 -i 9 -a 1 -x {0.0 2.0 6 ------- null}
+ -t 1.1133632 -s 2 -d 1 -p ack -e 40 -c 1 -i 13 -a 1 -x {2.0 0.0 6 ------- null}
- -t 1.1133632 -s 2 -d 1 -p ack -e 40 -c 1 -i 13 -a 1 -x {2.0 0.0 6 ------- null}
h -t 1.1133632 -s 2 -d 1 -p ack -e 40 -c 1 -i 13 -a 1 -x {2.0 0.0 -1 ------- null}
r -t 1.1164192 -s 2 -d 1 -p ack -e 40 -c 1 -i 10 -a 1 -x {2.0 0.0 3 ------- null}
+ -t 1.1164192 -s 1 -d 0 -p ack -e 40 -c 1 -i 10 -a 1 -x {2.0 0.0 3 ------- null}
- -t 1.1164192 -s 1 -d 0 -p ack -e 40 -c 1 -i 10 -a 1 -x {2.0 0.0 3 ------- null}
h -t 1.1164192 -s 1 -d 0 -p ack -e 40 -c 1 -i 10 -a 1 -x {2.0 0.0 -1 ------- null}
r -t 1.1187872 -s 2 -d 1 -p ack -e 40 -c 1 -i 11 -a 1 -x {2.0 0.0 4 ------- null}
+ -t 1.1187872 -s 1 -d 0 -p ack -e 40 -c 1 -i 11 -a 1 -x {2.0 0.0 4 ------- null}
- -t 1.1187872 -s 1 -d 0 -p ack -e 40 -c 1 -i 11 -a 1 -x {2.0 0.0 4 ------- null}
h -t 1.1187872 -s 1 -d 0 -p ack -e 40 -c 1 -i 11 -a 1 -x {2.0 0.0 -1 ------- null}
r -t 1.1211552 -s 2 -d 1 -p ack -e 40 -c 1 -i 12 -a 1 -x {2.0 0.0 5 ------- null}
+ -t 1.1211552 -s 1 -d 0 -p ack -e 40 -c 1 -i 12 -a 1 -x {2.0 0.0 5 ------- null}
- -t 1.1211552 -s 1 -d 0 -p ack -e 40 -c 1 -i 12 -a 1 -x {2.0 0.0 5 ------- null}
h -t 1.1211552 -s 1 -d 0 -p ack -e 40 -c 1 -i 12 -a 1 -x {2.0 0.0 -1 ------- null}
r -t 1.1235232 -s 2 -d 1 -p ack -e 40 -c 1 -i 13 -a 1 -x {2.0 0.0 6 ------- null}
+ -t 1.1235232 -s 1 -d 0 -p ack -e 40 -c 1 -i 13 -a 1 -x {2.0 0.0 6 ------- null}
- -t 1.1235232 -s 1 -d 0 -p ack -e 40 -c 1 -i 13 -a 1 -x {2.0 0.0 6 ------- null}
h -t 1.1235232 -s 1 -d 0 -p ack -e 40 -c 1 -i 13 -a 1 -x {2.0 0.0 -1 ------- null}
r -t 1.1264512 -s 1 -d 0 -p ack -e 40 -c 1 -i 10 -a 1 -x {2.0 0.0 3 ------- null}
+ -t 1.1264512 -s 0 -d 1 -p tcp -e 592 -c 1 -i 14 -a 1 -x {0.0 2.0 7 ------- null}
- -t 1.1264512 -s 0 -d 1 -p tcp -e 592 -c 1 -i 14 -a 1 -x {0.0 2.0 7 ------- null}
h -t 1.1264512 -s 0 -d 1 -p tcp -e 592 -c 1 -i 14 -a 1 -x {0.0 2.0 -1 ------- null}
+ -t 1.1264512 -s 0 -d 1 -p tcp -e 592 -c 1 -i 15 -a 1 -x {0.0 2.0 8 ------- null}
- -t 1.1269248 -s 0 -d 1 -p tcp -e 592 -c 1 -i 15 -a 1 -x {0.0 2.0 8 ------- null}
h -t 1.1269248 -s 0 -d 1 -p tcp -e 592 -c 1 -i 15 -a 1 -x {0.0 2.0 -1 ------- null}
r -t 1.1288192 -s 1 -d 0 -p ack -e 40 -c 1 -i 11 -a 1 -x {2.0 0.0 4 ------- null}
+ -t 1.1288192 -s 0 -d 1 -p tcp -e 592 -c 1 -i 16 -a 1 -x {0.0 2.0 9 ------- null}
- -t 1.1288192 -s 0 -d 1 -p tcp -e 592 -c 1 -i 16 -a 1 -x {0.0 2.0 9 ------- null}
h -t 1.1288192 -s 0 -d 1 -p tcp -e 592 -c 1 -i 16 -a 1 -x {0.0 2.0 -1 ------- null}
+ -t 1.1288192 -s 0 -d 1 -p tcp -e 592 -c 1 -i 17 -a 1 -x {0.0 2.0 10 ------- null}
- -t 1.1292928 -s 0 -d 1 -p tcp -e 592 -c 1 -i 17 -a 1 -x {0.0 2.0 10 ------- null}
h -t 1.1292928 -s 0 -d 1 -p tcp -e 592 -c 1 -i 17 -a 1 -x {0.0 2.0 -1 ------- null}
r -t 1.1311872 -s 1 -d 0 -p ack -e 40 -c 1 -i 12 -a 1 -x {2.0 0.0 5 ------- null}
+ -t 1.1311872 -s 0 -d 1 -p tcp -e 592 -c 1 -i 18 -a 1 -x {0.0 2.0 11 ------- null}
- -t 1.1311872 -s 0 -d 1 -p tcp -e 592 -c 1 -i 18 -a 1 -x {0.0 2.0 11 ------- null}
h -t 1.1311872 -s 0 -d 1 -p tcp -e 592 -c 1 -i 18 -a 1 -x {0.0 2.0 -1 ------- null}
+ -t 1.1311872 -s 0 -d 1 -p tcp -e 592 -c 1 -i 19 -a 1 -x {0.0 2.0 12 ------- null}
- -t 1.1316608 -s 0 -d 1 -p tcp -e 592 -c 1 -i 19 -a 1 -x {0.0 2.0 12 ------- null}
h -t 1.1316608 -s 0 -d 1 -p tcp -e 592 -c 1 -i 19 -a 1 -x {0.0 2.0 -1 ------- null}
r -t 1.1335552 -s 1 -d 0 -p ack -e 40 -c 1 -i 13 -a 1 -x {2.0 0.0 6 ------- null}
+ -t 1.1335552 -s 0 -d 1 -p tcp -e 592 -c 1 -i 20 -a 1 -x {0.0 2.0 13 ------- null}
- -t 1.1335552 -s 0 -d 1 -p tcp -e 592 -c 1 -i 20 -a 1 -x {0.0 2.0 13 ------- null}
h -t 1.1335552 -s 0 -d 1 -p tcp -e 592 -c 1 -i 20 -a 1 -x {0.0 2.0 -1 ------- null}
+ -t 1.1335552 -s 0 -d 1 -p tcp -e 592 -c 1 -i 21 -a 1 -x {0.0 2.0 14 ------- null}
- -t 1.1340288 -s 0 -d 1 -p tcp -e 592 -c 1 -i 21 -a 1 -x {0.0 2.0 14 ------- null}
h -t 1.1340288 -s 0 -d 1 -p tcp -e 592 -c 1 -i 21 -a 1 -x {0.0 2.0 -1 ------- null}
r -t 1.1369248 -s 0 -d 1 -p tcp -e 592 -c 1 -i 14 -a 1 -x {0.0 2.0 7 ------- null}
+ -t 1.1369248 -s 1 -d 2 -p tcp -e 592 -c 1 -i 14 -a 1 -x {0.0 2.0 7 ------- null}
- -t 1.1369248 -s 1 -d 2 -p tcp -e 592 -c 1 -i 14 -a 1 -x {0.0 2.0 7 ------- null}
h -t 1.1369248 -s 1 -d 2 -p tcp -e 592 -c 1 -i 14 -a 1 -x {0.0 2.0 -1 ------- null}
r -t 1.1373984 -s 0 -d 1 -p tcp -e 592 -c 1 -i 15 -a 1 -x {0.0 2.0 8 ------- null}
+ -t 1.1373984 -s 1 -d 2 -p tcp -e 592 -c 1 -i 15 -a 1 -x {0.0 2.0 8 ------- null}
r -t 1.1392928 -s 0 -d 1 -p tcp -e 592 -c 1 -i 16 -a 1 -x {0.0 2.0 9 ------- null}
+ -t 1.1392928 -s 1 -d 2 -p tcp -e 592 -c 1 -i 16 -a 1 -x {0.0 2.0 9 ------- null}
- -t 1.1392928 -s 1 -d 2 -p tcp -e 592 -c 1 -i 15 -a 1 -x {0.0 2.0 8 ------- null}
h -t 1.1392928 -s 1 -d 2 -p tcp -e 592 -c 1 -i 15 -a 1 -x {0.0 2.0 -1 ------- null}
r -t 1.1397664 -s 0 -d 1 -p tcp -e 592 -c 1 -i 17 -a 1 -x {0.0 2.0 10 ------- null}
+ -t 1.1397664 -s 1 -d 2 -p tcp -e 592 -c 1 -i 17 -a 1 -x {0.0 2.0 10 ------- null}
r -t 1.1416608 -s 0 -d 1 -p tcp -e 592 -c 1 -i 18 -a 1 -x {0.0 2.0 11 ------- null}
+ -t 1.1416608 -s 1 -d 2 -p tcp -e 592 -c 1 -i 18 -a 1 -x {0.0 2.0 11 ------- null}
- -t 1.1416608 -s 1 -d 2 -p tcp -e 592 -c 1 -i 16 -a 1 -x {0.0 2.0 9 ------- null}
h -t 1.1416608 -s 1 -d 2 -p tcp -e 592 -c 1 -i 16 -a 1 -x {0.0 2.0 -1 ------- null}
r -t 1.1421344 -s 0 -d 1 -p tcp -e 592 -c 1 -i 19 -a 1 -x {0.0 2.0 12 ------- null}
+ -t 1.1421344 -s 1 -d 2 -p tcp -e 592 -c 1 -i 19 -a 1 -x {0.0 2.0 12 ------- null}
r -t 1.1440288 -s 0 -d 1 -p tcp -e 592 -c 1 -i 20 -a 1 -x {0.0 2.0 13 ------- null}
+ -t 1.1440288 -s 1 -d 2 -p tcp -e 592 -c 1 -i 20 -a 1 -x {0.0 2.0 13 ------- null}
- -t 1.1440288 -s 1 -d 2 -p tcp -e 592 -c 1 -i 17 -a 1 -x {0.0 2.0 10 ------- null}
h -t 1.1440288 -s 1 -d 2 -p tcp -e 592 -c 1 -i 17 -a 1 -x {0.0 2.0 -1 ------- null}
r -t 1.1445024 -s 0 -d 1 -p tcp -e 592 -c 1 -i 21 -a 1 -x {0.0 2.0 14 ------- null}
+ -t 1.1445024 -s 1 -d 2 -p tcp -e 592 -c 1 -i 21 -a 1 -x {0.0 2.0 14 ------- null}
- -t 1.1463968 -s 1 -d 2 -p tcp -e 592 -c 1 -i 18 -a 1 -x {0.0 2.0 11 ------- null}
h -t 1.1463968 -s 1 -d 2 -p tcp -e 592 -c 1 -i 18 -a 1 -x {0.0 2.0 -1 ------- null}
- -t 1.1487648 -s 1 -d 2 -p tcp -e 592 -c 1 -i 19 -a 1 -x {0.0 2.0 12 ------- null}
h -t 1.1487648 -s 1 -d 2 -p tcp -e 592 -c 1 -i 19 -a 1 -x {0.0 2.0 -1 ------- null}
r -t 1.1492928 -s 1 -d 2 -p tcp -e 592 -c 1 -i 14 -a 1 -x {0.0 2.0 7 ------- null}
+ -t 1.1492928 -s 2 -d 1 -p ack -e 40 -c 1 -i 22 -a 1 -x {2.0 0.0 7 ------- null}
- -t 1.1492928 -s 2 -d 1 -p ack -e 40 -c 1 -i 22 -a 1 -x {2.0 0.0 7 ------- null}
h -t 1.1492928 -s 2 -d 1 -p ack -e 40 -c 1 -i 22 -a 1 -x {2.0 0.0 -1 ------- null}
- -t 1.1511328 -s 1 -d 2 -p tcp -e 592 -c 1 -i 20 -a 1 -x {0.0 2.0 13 ------- null}
h -t 1.1511328 -s 1 -d 2 -p tcp -e 592 -c 1 -i 20 -a 1 -x {0.0 2.0 -1 ------- null}
r -t 1.1516608 -s 1 -d 2 -p tcp -e 592 -c 1 -i 15 -a 1 -x {0.0 2.0 8 ------- null}
+ -t 1.1516608 -s 2 -d 1 -p ack -e 40 -c 1 -i 23 -a 1 -x {2.0 0.0 8 ------- null}
- -t 1.1516608 -s 2 -d 1 -p ack -e 40 -c 1 -i 23 -a 1 -x {2.0 0.0 8 ------- null}
h -t 1.1516608 -s 2 -d 1 -p ack -e 40 -c 1 -i 23 -a 1 -x {2.0 0.0 -1 ------- null}
- -t 1.1535008 -s 1 -d 2 -p tcp -e 592 -c 1 -i 21 -a 1 -x {0.0 2.0 14 ------- null}
h -t 1.1535008 -s 1 -d 2 -p tcp -e 592 -c 1 -i 21 -a 1 -x {0.0 2.0 -1 ------- null}
r -t 1.1540288 -s 1 -d 2 -p tcp -e 592 -c 1 -i 16 -a 1 -x {0.0 2.0 9 ------- null}
+ -t 1.1540288 -s 2 -d 1 -p ack -e 40 -c 1 -i 24 -a 1 -x {2.0 0.0 9 ------- null}
- -t 1.1540288 -s 2 -d 1 -p ack -e 40 -c 1 -i 24 -a 1 -x {2.0 0.0 9 ------- null}
h -t 1.1540288 -s 2 -d 1 -p ack -e 40 -c 1 -i 24 -a 1 -x {2.0 0.0 -1 ------- null}
r -t 1.1563968 -s 1 -d 2 -p tcp -e 592 -c 1 -i 17 -a 1 -x {0.0 2.0 10 ------- null}
+ -t 1.1563968 -s 2 -d 1 -p ack -e 40 -c 1 -i 25 -a 1 -x {2.0 0.0 10 ------- null}
- -t 1.1563968 -s 2 -d 1 -p ack -e 40 -c 1 -i 25 -a 1 -x {2.0 0.0 10 ------- null}
h -t 1.1563968 -s 2 -d 1 -p ack -e 40 -c 1 -i 25 -a 1 -x {2.0 0.0 -1 ------- null}
r -t 1.1587648 -s 1 -d 2 -p tcp -e 592 -c 1 -i 18 -a 1 -x {0.0 2.0 11 ------- null}
+ -t 1.1587648 -s 2 -d 1 -p ack -e 40 -c 1 -i 26 -a 1 -x {2.0 0.0 11 ------- null}
- -t 1.1587648 -s 2 -d 1 -p ack -e 40 -c 1 -i 26 -a 1 -x {2.0 0.0 11 ------- null}
h -t 1.1587648 -s 2 -d 1 -p ack -e 40 -c 1 -i 26 -a 1 -x {2.0 0.0 -1 ------- null}
r -t 1.1594528 -s 2 -d 1 -p ack -e 40 -c 1 -i 22 -a 1 -x {2.0 0.0 7 ------- null}
+ -t 1.1594528 -s 1 -d 0 -p ack -e 40 -c 1 -i 22 -a 1 -x {2.0 0.0 7 ------- null}
- -t 1.1594528 -s 1 -d 0 -p ack -e 40 -c 1 -i 22 -a 1 -x {2.0 0.0 7 ------- null}
h -t 1.1594528 -s 1 -d 0 -p ack -e 40 -c 1 -i 22 -a 1 -x {2.0 0.0 -1 ------- null}
r -t 1.1611328 -s 1 -d 2 -p tcp -e 592 -c 1 -i 19 -a 1 -x {0.0 2.0 12 ------- null}
+ -t 1.1611328 -s 2 -d 1 -p ack -e 40 -c 1 -i 27 -a 1 -x {2.0 0.0 12 ------- null}
- -t 1.1611328 -s 2 -d 1 -p ack -e 40 -c 1 -i 27 -a 1 -x {2.0 0.0 12 ------- null}
h -t 1.1611328 -s 2 -d 1 -p ack -e 40 -c 1 -i 27 -a 1 -x {2.0 0.0 -1 ------- null}
r -t 1.1618208 -s 2 -d 1 -p ack -e 40 -c 1 -i 23 -a 1 -x {2.0 0.0 8 ------- null}
+ -t 1.1618208 -s 1 -d 0 -p ack -e 40 -c 1 -i 23 -a 1 -x {2.0 0.0 8 ------- null}
- -t 1.1618208 -s 1 -d 0 -p ack -e 40 -c 1 -i 23 -a 1 -x {2.0 0.0 8 ------- null}
h -t 1.1618208 -s 1 -d 0 -p ack -e 40 -c 1 -i 23 -a 1 -x {2.0 0.0 -1 ------- null}
r -t 1.1635008 -s 1 -d 2 -p tcp -e 592 -c 1 -i 20 -a 1 -x {0.0 2.0 13 ------- null}
+ -t 1.1635008 -s 2 -d 1 -p ack -e 40 -c 1 -i 28 -a 1 -x {2.0 0.0 13 ------- null}
- -t 1.1635008 -s 2 -d 1 -p ack -e 40 -c 1 -i 28 -a 1 -x {2.0 0.0 13 ------- null}
h -t 1.1635008 -s 2 -d 1 -p ack -e 40 -c 1 -i 28 -a 1 -x {2.0 0.0 -1 ------- null}
r -t 1.1641888 -s 2 -d 1 -p ack -e 40 -c 1 -i 24 -a 1 -x {2.0 0.0 9 ------- null}
+ -t 1.1641888 -s 1 -d 0 -p ack -e 40 -c 1 -i 24 -a 1 -x {2.0 0.0 9 ------- null}
- -t 1.1641888 -s 1 -d 0 -p ack -e 40 -c 1 -i 24 -a 1 -x {2.0 0.0 9 ------- null}
h -t 1.1641888 -s 1 -d 0 -p ack -e 40 -c 1 -i 24 -a 1 -x {2.0 0.0 -1 ------- null}
r -t 1.1658688 -s 1 -d 2 -p tcp -e 592 -c 1 -i 21 -a 1 -x {0.0 2.0 14 ------- null}
+ -t 1.1658688 -s 2 -d 1 -p ack -e 40 -c 1 -i 29 -a 1 -x {2.0 0.0 14 ------- null}
- -t 1.1658688 -s 2 -d 1 -p ack -e 40 -c 1 -i 29 -a 1 -x {2.0 0.0 14 ------- null}
h -t 1.1658688 -s 2 -d 1 -p ack -e 40 -c 1 -i 29 -a 1 -x {2.0 0.0 -1 ------- null}
r -t 1.1665568 -s 2 -d 1 -p ack -e 40 -c 1 -i 25 -a 1 -x {2.0 0.0 10 ------- null}
+ -t 1.1665568 -s 1 -d 0 -p ack -e 40 -c 1 -i 25 -a 1 -x {2.0 0.0 10 ------- null}
- -t 1.1665568 -s 1 -d 0 -p ack -e 40 -c 1 -i 25 -a 1 -x {2.0 0.0 10 ------- null}
h -t 1.1665568 -s 1 -d 0 -p ack -e 40 -c 1 -i 25 -a 1 -x {2.0 0.0 -1 ------- null}
r -t 1.1689248 -s 2 -d 1 -p ack -e 40 -c 1 -i 26 -a 1 -x {2.0 0.0 11 ------- null}
+ -t 1.1689248 -s 1 -d 0 -p ack -e 40 -c 1 -i 26 -a 1 -x {2.0 0.0 11 ------- null}
- -t 1.1689248 -s 1 -d 0 -p ack -e 40 -c 1 -i 26 -a 1 -x {2.0 0.0 11 ------- null}
h -t 1.1689248 -s 1 -d 0 -p ack -e 40 -c 1 -i 26 -a 1 -x {2.0 0.0 -1 ------- null}
r -t 1.1694848 -s 1 -d 0 -p ack -e 40 -c 1 -i 22 -a 1 -x {2.0 0.0 7 ------- null}
+ -t 1.1694848 -s 0 -d 1 -p tcp -e 592 -c 1 -i 30 -a 1 -x {0.0 2.0 15 ------- null}
- -t 1.1694848 -s 0 -d 1 -p tcp -e 592 -c 1 -i 30 -a 1 -x {0.0 2.0 15 ------- null}
h -t 1.1694848 -s 0 -d 1 -p tcp -e 592 -c 1 -i 30 -a 1 -x {0.0 2.0 -1 ------- null}
+ -t 1.1694848 -s 0 -d 1 -p tcp -e 592 -c 1 -i 31 -a 1 -x {0.0 2.0 16 ------- null}
- -t 1.1699584 -s 0 -d 1 -p tcp -e 592 -c 1 -i 31 -a 1 -x {0.0 2.0 16 ------- null}
h -t 1.1699584 -s 0 -d 1 -p tcp -e 592 -c 1 -i 31 -a 1 -x {0.0 2.0 -1 ------- null}
r -t 1.1712928 -s 2 -d 1 -p ack -e 40 -c 1 -i 27 -a 1 -x {2.0 0.0 12 ------- null}
+ -t 1.1712928 -s 1 -d 0 -p ack -e 40 -c 1 -i 27 -a 1 -x {2.0 0.0 12 ------- null}
- -t 1.1712928 -s 1 -d 0 -p ack -e 40 -c 1 -i 27 -a 1 -x {2.0 0.0 12 ------- null}
h -t 1.1712928 -s 1 -d 0 -p ack -e 40 -c 1 -i 27 -a 1 -x {2.0 0.0 -1 ------- null}
r -t 1.1718528 -s 1 -d 0 -p ack -e 40 -c 1 -i 23 -a 1 -x {2.0 0.0 8 ------- null}
+ -t 1.1718528 -s 0 -d 1 -p tcp -e 592 -c 1 -i 32 -a 1 -x {0.0 2.0 17 ------- null}
- -t 1.1718528 -s 0 -d 1 -p tcp -e 592 -c 1 -i 32 -a 1 -x {0.0 2.0 17 ------- null}
h -t 1.1718528 -s 0 -d 1 -p tcp -e 592 -c 1 -i 32 -a 1 -x {0.0 2.0 -1 ------- null}
+ -t 1.1718528 -s 0 -d 1 -p tcp -e 592 -c 1 -i 33 -a 1 -x {0.0 2.0 18 ------- null}
- -t 1.1723264 -s 0 -d 1 -p tcp -e 592 -c 1 -i 33 -a 1 -x {0.0 2.0 18 ------- null}
h -t 1.1723264 -s 0 -d 1 -p tcp -e 592 -c 1 -i 33 -a 1 -x {0.0 2.0 -1 ------- null}
r -t 1.1736608 -s 2 -d 1 -p ack -e 40 -c 1 -i 28 -a 1 -x {2.0 0.0 13 ------- null}
+ -t 1.1736608 -s 1 -d 0 -p ack -e 40 -c 1 -i 28 -a 1 -x {2.0 0.0 13 ------- null}
- -t 1.1736608 -s 1 -d 0 -p ack -e 40 -c 1 -i 28 -a 1 -x {2.0 0.0 13 ------- null}
h -t 1.1736608 -s 1 -d 0 -p ack -e 40 -c 1 -i 28 -a 1 -x {2.0 0.0 -1 ------- null}
r -t 1.1742208 -s 1 -d 0 -p ack -e 40 -c 1 -i 24 -a 1 -x {2.0 0.0 9 ------- null}
+ -t 1.1742208 -s 0 -d 1 -p tcp -e 592 -c 1 -i 34 -a 1 -x {0.0 2.0 19 ------- null}
- -t 1.1742208 -s 0 -d 1 -p tcp -e 592 -c 1 -i 34 -a 1 -x {0.0 2.0 19 ------- null}
h -t 1.1742208 -s 0 -d 1 -p tcp -e 592 -c 1 -i 34 -a 1 -x {0.0 2.0 -1 ------- null}
+ -t 1.1742208 -s 0 -d 1 -p tcp -e 592 -c 1 -i 35 -a 1 -x {0.0 2.0 20 ------- null}
- -t 1.1746944 -s 0 -d 1 -p tcp -e 592 -c 1 -i 35 -a 1 -x {0.0 2.0 20 ------- null}
h -t 1.1746944 -s 0 -d 1 -p tcp -e 592 -c 1 -i 35 -a 1 -x {0.0 2.0 -1 ------- null}
r -t 1.1760288 -s 2 -d 1 -p ack -e 40 -c 1 -i 29 -a 1 -x {2.0 0.0 14 ------- null}
+ -t 1.1760288 -s 1 -d 0 -p ack -e 40 -c 1 -i 29 -a 1 -x {2.0 0.0 14 ------- null}
- -t 1.1760288 -s 1 -d 0 -p ack -e 40 -c 1 -i 29 -a 1 -x {2.0 0.0 14 ------- null}
h -t 1.1760288 -s 1 -d 0 -p ack -e 40 -c 1 -i 29 -a 1 -x {2.0 0.0 -1 ------- null}
r -t 1.1765888 -s 1 -d 0 -p ack -e 40 -c 1 -i 25 -a 1 -x {2.0 0.0 10 ------- null}
+ -t 1.1765888 -s 0 -d 1 -p tcp -e 592 -c 1 -i 36 -a 1 -x {0.0 2.0 21 ------- null}
- -t 1.1765888 -s 0 -d 1 -p tcp -e 592 -c 1 -i 36 -a 1 -x {0.0 2.0 21 ------- null}
h -t 1.1765888 -s 0 -d 1 -p tcp -e 592 -c 1 -i 36 -a 1 -x {0.0 2.0 -1 ------- null}
+ -t 1.1765888 -s 0 -d 1 -p tcp -e 592 -c 1 -i 37 -a 1 -x {0.0 2.0 22 ------- null}
- -t 1.1770624 -s 0 -d 1 -p tcp -e 592 -c 1 -i 37 -a 1 -x {0.0 2.0 22 ------- null}
h -t 1.1770624 -s 0 -d 1 -p tcp -e 592 -c 1 -i 37 -a 1 -x {0.0 2.0 -1 ------- null}
r -t 1.1789568 -s 1 -d 0 -p ack -e 40 -c 1 -i 26 -a 1 -x {2.0 0.0 11 ------- null}
+ -t 1.1789568 -s 0 -d 1 -p tcp -e 592 -c 1 -i 38 -a 1 -x {0.0 2.0 23 ------- null}
- -t 1.1789568 -s 0 -d 1 -p tcp -e 592 -c 1 -i 38 -a 1 -x {0.0 2.0 23 ------- null}
h -t 1.1789568 -s 0 -d 1 -p tcp -e 592 -c 1 -i 38 -a 1 -x {0.0 2.0 -1 ------- null}
+ -t 1.1789568 -s 0 -d 1 -p tcp -e 592 -c 1 -i 39 -a 1 -x {0.0 2.0 24 ------- null}
- -t 1.1794304 -s 0 -d 1 -p tcp -e 592 -c 1 -i 39 -a 1 -x {0.0 2.0 24 ------- null}
h -t 1.1794304 -s 0 -d 1 -p tcp -e 592 -c 1 -i 39 -a 1 -x {0.0 2.0 -1 ------- null}
r -t 1.1799584 -s 0 -d 1 -p tcp -e 592 -c 1 -i 30 -a 1 -x {0.0 2.0 15 ------- null}
+ -t 1.1799584 -s 1 -d 2 -p tcp -e 592 -c 1 -i 30 -a 1 -x {0.0 2.0 15 ------- null}
- -t 1.1799584 -s 1 -d 2 -p tcp -e 592 -c 1 -i 30 -a 1 -x {0.0 2.0 15 ------- null}
h -t 1.1799584 -s 1 -d 2 -p tcp -e 592 -c 1 -i 30 -a 1 -x {0.0 2.0 -1 ------- null}
r -t 1.180432 -s 0 -d 1 -p tcp -e 592 -c 1 -i 31 -a 1 -x {0.0 2.0 16 ------- null}
+ -t 1.180432 -s 1 -d 2 -p tcp -e 592 -c 1 -i 31 -a 1 -x {0.0 2.0 16 ------- null}
r -t 1.1813248 -s 1 -d 0 -p ack -e 40 -c 1 -i 27 -a 1 -x {2.0 0.0 12 ------- null}
+ -t 1.1813248 -s 0 -d 1 -p tcp -e 592 -c 1 -i 40 -a 1 -x {0.0 2.0 25 ------- null}
- -t 1.1813248 -s 0 -d 1 -p tcp -e 592 -c 1 -i 40 -a 1 -x {0.0 2.0 25 ------- null}
h -t 1.1813248 -s 0 -d 1 -p tcp -e 592 -c 1 -i 40 -a 1 -x {0.0 2.0 -1 ------- null}
+ -t 1.1813248 -s 0 -d 1 -p tcp -e 592 -c 1 -i 41 -a 1 -x {0.0 2.0 26 ------- null}
- -t 1.1817984 -s 0 -d 1 -p tcp -e 592 -c 1 -i 41 -a 1 -x {0.0 2.0 26 ------- null}
h -t 1.1817984 -s 0 -d 1 -p tcp -e 592 -c 1 -i 41 -a 1 -x {0.0 2.0 -1 ------- null}
r -t 1.1823264 -s 0 -d 1 -p tcp -e 592 -c 1 -i 32 -a 1 -x {0.0 2.0 17 ------- null}
+ -t 1.1823264 -s 1 -d 2 -p tcp -e 592 -c 1 -i 32 -a 1 -x {0.0 2.0 17 ------- null}
- -t 1.1823264 -s 1 -d 2 -p tcp -e 592 -c 1 -i 31 -a 1 -x {0.0 2.0 16 ------- null}
h -t 1.1823264 -s 1 -d 2 -p tcp -e 592 -c 1 -i 31 -a 1 -x {0.0 2.0 -1 ------- null}
r -t 1.1828 -s 0 -d 1 -p tcp -e 592 -c 1 -i 33 -a 1 -x {0.0 2.0 18 ------- null}
+ -t 1.1828 -s 1 -d 2 -p tcp -e 592 -c 1 -i 33 -a 1 -x {0.0 2.0 18 ------- null}
r -t 1.1836928 -s 1 -d 0 -p ack -e 40 -c 1 -i 28 -a 1 -x {2.0 0.0 13 ------- null}
+ -t 1.1836928 -s 0 -d 1 -p tcp -e 592 -c 1 -i 42 -a 1 -x {0.0 2.0 27 ------- null}
- -t 1.1836928 -s 0 -d 1 -p tcp -e 592 -c 1 -i 42 -a 1 -x {0.0 2.0 27 ------- null}
h -t 1.1836928 -s 0 -d 1 -p tcp -e 592 -c 1 -i 42 -a 1 -x {0.0 2.0 -1 ------- null}
+ -t 1.1836928 -s 0 -d 1 -p tcp -e 592 -c 1 -i 43 -a 1 -x {0.0 2.0 28 ------- null}
- -t 1.1841664 -s 0 -d 1 -p tcp -e 592 -c 1 -i 43 -a 1 -x {0.0 2.0 28 ------- null}
h -t 1.1841664 -s 0 -d 1 -p tcp -e 592 -c 1 -i 43 -a 1 -x {0.0 2.0 -1 ------- null}
r -t 1.1846944 -s 0 -d 1 -p tcp -e 592 -c 1 -i 34 -a 1 -x {0.0 2.0 19 ------- null}
+ -t 1.1846944 -s 1 -d 2 -p tcp -e 592 -c 1 -i 34 -a 1 -x {0.0 2.0 19 ------- null}
- -t 1.1846944 -s 1 -d 2 -p tcp -e 592 -c 1 -i 32 -a 1 -x {0.0 2.0 17 ------- null}
h -t 1.1846944 -s 1 -d 2 -p tcp -e 592 -c 1 -i 32 -a 1 -x {0.0 2.0 -1 ------- null}
r -t 1.185168 -s 0 -d 1 -p tcp -e 592 -c 1 -i 35 -a 1 -x {0.0 2.0 20 ------- null}
+ -t 1.185168 -s 1 -d 2 -p tcp -e 592 -c 1 -i 35 -a 1 -x {0.0 2.0 20 ------- null}
r -t 1.1860608 -s 1 -d 0 -p ack -e 40 -c 1 -i 29 -a 1 -x {2.0 0.0 14 ------- null}
+ -t 1.1860608 -s 0 -d 1 -p tcp -e 592 -c 1 -i 44 -a 1 -x {0.0 2.0 29 ------- null}
- -t 1.1860608 -s 0 -d 1 -p tcp -e 592 -c 1 -i 44 -a 1 -x {0.0 2.0 29 ------- null}
h -t 1.1860608 -s 0 -d 1 -p tcp -e 592 -c 1 -i 44 -a 1 -x {0.0 2.0 -1 ------- null}
+ -t 1.1860608 -s 0 -d 1 -p tcp -e 592 -c 1 -i 45 -a 1 -x {0.0 2.0 30 ------- null}
- -t 1.1865344 -s 0 -d 1 -p tcp -e 592 -c 1 -i 45 -a 1 -x {0.0 2.0 30 ------- null}
h -t 1.1865344 -s 0 -d 1 -p tcp -e 592 -c 1 -i 45 -a 1 -x {0.0 2.0 -1 ------- null}
r -t 1.1870624 -s 0 -d 1 -p tcp -e 592 -c 1 -i 36 -a 1 -x {0.0 2.0 21 ------- null}
+ -t 1.1870624 -s 1 -d 2 -p tcp -e 592 -c 1 -i 36 -a 1 -x {0.0 2.0 21 ------- null}
- -t 1.1870624 -s 1 -d 2 -p tcp -e 592 -c 1 -i 33 -a 1 -x {0.0 2.0 18 ------- null}
h -t 1.1870624 -s 1 -d 2 -p tcp -e 592 -c 1 -i 33 -a 1 -x {0.0 2.0 -1 ------- null}
r -t 1.187536 -s 0 -d 1 -p tcp -e 592 -c 1 -i 37 -a 1 -x {0.0 2.0 22 ------- null}
+ -t 1.187536 -s 1 -d 2 -p tcp -e 592 -c 1 -i 37 -a 1 -x {0.0 2.0 22 ------- null}
r -t 1.1894304 -s 0 -d 1 -p tcp -e 592 -c 1 -i 38 -a 1 -x {0.0 2.0 23 ------- null}
+ -t 1.1894304 -s 1 -d 2 -p tcp -e 592 -c 1 -i 38 -a 1 -x {0.0 2.0 23 ------- null}
- -t 1.1894304 -s 1 -d 2 -p tcp -e 592 -c 1 -i 34 -a 1 -x {0.0 2.0 19 ------- null}
h -t 1.1894304 -s 1 -d 2 -p tcp -e 592 -c 1 -i 34 -a 1 -x {0.0 2.0 -1 ------- null}
r -t 1.189904 -s 0 -d 1 -p tcp -e 592 -c 1 -i 39 -a 1 -x {0.0 2.0 24 ------- null}
+ -t 1.189904 -s 1 -d 2 -p tcp -e 592 -c 1 -i 39 -a 1 -x {0.0 2.0 24 ------- null}
r -t 1.1917984 -s 0 -d 1 -p tcp -e 592 -c 1 -i 40 -a 1 -x {0.0 2.0 25 ------- null}
+ -t 1.1917984 -s 1 -d 2 -p tcp -e 592 -c 1 -i 40 -a 1 -x {0.0 2.0 25 ------- null}
- -t 1.1917984 -s 1 -d 2 -p tcp -e 592 -c 1 -i 35 -a 1 -x {0.0 2.0 20 ------- null}
h -t 1.1917984 -s 1 -d 2 -p tcp -e 592 -c 1 -i 35 -a 1 -x {0.0 2.0 -1 ------- null}
r -t 1.192272 -s 0 -d 1 -p tcp -e 592 -c 1 -i 41 -a 1 -x {0.0 2.0 26 ------- null}
+ -t 1.192272 -s 1 -d 2 -p tcp -e 592 -c 1 -i 41 -a 1 -x {0.0 2.0 26 ------- null}
r -t 1.1923264 -s 1 -d 2 -p tcp -e 592 -c 1 -i 30 -a 1 -x {0.0 2.0 15 ------- null}
+ -t 1.1923264 -s 2 -d 1 -p ack -e 40 -c 1 -i 46 -a 1 -x {2.0 0.0 15 ------- null}
- -t 1.1923264 -s 2 -d 1 -p ack -e 40 -c 1 -i 46 -a 1 -x {2.0 0.0 15 ------- null}
h -t 1.1923264 -s 2 -d 1 -p ack -e 40 -c 1 -i 46 -a 1 -x {2.0 0.0 -1 ------- null}
r -t 1.1941664 -s 0 -d 1 -p tcp -e 592 -c 1 -i 42 -a 1 -x {0.0 2.0 27 ------- null}
+ -t 1.1941664 -s 1 -d 2 -p tcp -e 592 -c 1 -i 42 -a 1 -x {0.0 2.0 27 ------- null}
- -t 1.1941664 -s 1 -d 2 -p tcp -e 592 -c 1 -i 36 -a 1 -x {0.0 2.0 21 ------- null}
h -t 1.1941664 -s 1 -d 2 -p tcp -e 592 -c 1 -i 36 -a 1 -x {0.0 2.0 -1 ------- null}
r -t 1.19464 -s 0 -d 1 -p tcp -e 592 -c 1 -i 43 -a 1 -x {0.0 2.0 28 ------- null}
+ -t 1.19464 -s 1 -d 2 -p tcp -e 592 -c 1 -i 43 -a 1 -x {0.0 2.0 28 ------- null}
r -t 1.1946944 -s 1 -d 2 -p tcp -e 592 -c 1 -i 31 -a 1 -x {0.0 2.0 16 ------- null}
+ -t 1.1946944 -s 2 -d 1 -p ack -e 40 -c 1 -i 47 -a 1 -x {2.0 0.0 16 ------- null}
- -t 1.1946944 -s 2 -d 1 -p ack -e 40 -c 1 -i 47 -a 1 -x {2.0 0.0 16 ------- null}
h -t 1.1946944 -s 2 -d 1 -p ack -e 40 -c 1 -i 47 -a 1 -x {2.0 0.0 -1 ------- null}
r -t 1.1965344 -s 0 -d 1 -p tcp -e 592 -c 1 -i 44 -a 1 -x {0.0 2.0 29 ------- null}
+ -t 1.1965344 -s 1 -d 2 -p tcp -e 592 -c 1 -i 44 -a 1 -x {0.0 2.0 29 ------- null}
- -t 1.1965344 -s 1 -d 2 -p tcp -e 592 -c 1 -i 37 -a 1 -x {0.0 2.0 22 ------- null}
h -t 1.1965344 -s 1 -d 2 -p tcp -e 592 -c 1 -i 37 -a 1 -x {0.0 2.0 -1 ------- null}
r -t 1.197008 -s 0 -d 1 -p tcp -e 592 -c 1 -i 45 -a 1 -x {0.0 2.0 30 ------- null}
+ -t 1.197008 -s 1 -d 2 -p tcp -e 592 -c 1 -i 45 -a 1 -x {0.0 2.0 30 ------- null}
r -t 1.1970624 -s 1 -d 2 -p tcp -e 592 -c 1 -i 32 -a 1 -x {0.0 2.0 17 ------- null}
+ -t 1.1970624 -s 2 -d 1 -p ack -e 40 -c 1 -i 48 -a 1 -x {2.0 0.0 17 ------- null}
- -t 1.1970624 -s 2 -d 1 -p ack -e 40 -c 1 -i 48 -a 1 -x {2.0 0.0 17 ------- null}
h -t 1.1970624 -s 2 -d 1 -p ack -e 40 -c 1 -i 48 -a 1 -x {2.0 0.0 -1 ------- null}
- -t 1.1989024 -s 1 -d 2 -p tcp -e 592 -c 1 -i 38 -a 1 -x {0.0 2.0 23 ------- null}
h -t 1.1989024 -s 1 -d 2 -p tcp -e 592 -c 1 -i 38 -a 1 -x {0.0 2.0 -1 ------- null}
r -t 1.1994304 -s 1 -d 2 -p tcp -e 592 -c 1 -i 33 -a 1 -x {0.0 2.0 18 ------- null}
+ -t 1.1994304 -s 2 -d 1 -p ack -e 40 -c 1 -i 49 -a 1 -x {2.0 0.0 18 ------- null}
- -t 1.1994304 -s 2 -d 1 -p ack -e 40 -c 1 -i 49 -a 1 -x {2.0 0.0 18 ------- null}
h -t 1.1994304 -s 2 -d 1 -p ack -e 40 -c 1 -i 49 -a 1 -x {2.0 0.0 -1 ------- null}
- -t 1.2012704 -s 1 -d 2 -p tcp -e 592 -c 1 -i 39 -a 1 -x {0.0 2.0 24 ------- null}
h -t 1.2012704 -s 1 -d 2 -p tcp -e 592 -c 1 -i 39 -a 1 -x {0.0 2.0 -1 ------- null}
r -t 1.2017984 -s 1 -d 2 -p tcp -e 592 -c 1 -i 34 -a 1 -x {0.0 2.0 19 ------- null}